# vtk DataFile Version 4.2
vtk output
ASCII
DATASET POLYDATA
POINTS 2500 float
-0.5 -0.866025 0.125 -0.525549 -0.807553 0.19072 -0.536811 -0.74562 0.257796 
-0.532148 -0.68376 0.32338 -0.510382 -0.625161 0.384673 -0.470894 -0.572477 0.439078 
-0.413698 -0.527672 0.484353 -0.339483 -0.491914 0.518731 -0.249619 -0.465529 0.541019 
-0.146122 -0.448014 0.550657 -0.0315876 -0.438105 0.547739 0.0909116 -0.433899 0.533 
0.217953 -0.43302 0.507752 0.345912 -0.432821 0.473797 0.471126 -0.430597 0.433307 
0.590052 -0.423811 0.388679 0.699425 -0.4103 0.342386 0.796396 -0.388463 0.29682 
0.878648 -0.357404 0.254149 0.944482 -0.317028 0.216184 0.992868 -0.268086 0.184283 
1.02346 -0.212153 0.159274 1.03656 -0.151554 0.141425 1.03308 -0.0892328 0.130449 
1.01444 -0.0285759 0.125546 0.982474 0.0267965 0.12548 0.939261 0.0732626 0.128686 
0.887028 0.107435 0.133398 0.827998 0.12639 0.13779 0.764265 0.127866 0.140119 
0.697687 0.110434 0.138866 0.629803 0.073608 0.132854 0.561779 0.0179055 0.121351 
0.494382 -0.0551552 0.104129 0.427995 -0.14312 0.0815018 0.362655 -0.24272 0.054314 
0.298122 -0.350046 0.0238975 0.23397 -0.460763 -0.00800874 0.169689 -0.570344 -0.039368 
0.104796 -0.674329 -0.0679783 0.0389472 -0.768564 -0.0916191 -0.0279695 -0.849438 -0.108202 
-0.0957514 -0.91407 -0.115916 -0.163826 -0.960462 -0.11336 -0.231227 -0.987593 -0.0996441 
-0.296596 -0.995449 -0.0744718 -0.358227 -0.984999 -0.0381739 -0.414131 -0.958107 0.00828924 
-0.462136 -0.917388 0.063368 -0.5 -0.866025 0.125 -0.5 -0.866025 0.125 
-0.52959 -0.807651 0.191009 -0.544791 -0.745788 0.259312 -0.543831 -0.683988 0.327173 
-0.525427 -0.625484 0.391859 -0.488883 -0.572987 0.450782 -0.434172 -0.528531 0.501649 
-0.361978 -0.493363 0.54258 -0.273695 -0.467886 0.572211 -0.171391 -0.451667 0.589761 
-0.0577386 -0.443496 0.595064 0.0641005 -0.441506 0.588562 0.190608 -0.443333 0.571267 
0.318067 -0.446312 0.54468 0.442731 -0.447693 0.510691 0.560992 -0.444862 0.471452 
0.669545 -0.435553 0.429236 0.765527 -0.418041 0.386294 0.846638 -0.391286 0.344717 
0.911225 -0.355044 0.306308 0.958331 -0.309909 0.272483 0.987701 -0.257309 0.244195 
0.999758 -0.199435 0.221892 0.99553 -0.139117 0.205508 0.976559 -0.0796591 0.194498 
0.944774 -0.0246275 0.187896 0.902357 0.0223722 0.184408 0.8516 0.0579332 0.182523 
0.794758 0.0790755 0.180642 0.733922 0.0834514 0.17721 0.67091 0.0695151 0.170847 
0.607181 0.0366441 0.160462 0.543785 -0.0147942 0.14535 0.481346 -0.083438 0.125261 
0.420076 -0.166987 0.10044 0.359829 -0.262316 0.0716207 0.300175 -0.365644 0.0400006 
0.240501 -0.472736 0.00716844 0.180128 -0.579143 -0.0249898 0.118426 -0.680451 -0.0544102 
0.0549346 -0.772523 -0.0789852 -0.0105368 -0.851737 -0.0967047 -0.0778222 -0.915174 -0.105794 
-0.146344 -0.96078 -0.10484 -0.215086 -0.98746 -0.0928976 -0.282606 -0.995123 -0.0695664 
-0.347079 -0.984657 -0.0350383 -0.40637 -0.957853 0.00989404 -0.458146 -0.917263 0.0638652 
-0.5 -0.866025 0.125 -0.5 -0.866025 0.125 -0.533535 -0.807943 0.191034 
-0.55269 -0.74626 0.260313 -0.555571 -0.684524 0.330246 -0.540788 -0.625988 0.398186 
-0.507574 -0.573406 0.461577 -0.455855 -0.528873 0.518088 -0.386296 -0.493712 0.565734 
-0.300303 -0.468409 0.60298 -0.199981 -0.452614 0.628817 -0.0880526 -0.445197 0.6428 
0.0322527 -0.444354 0.645059 0.157347 -0.447768 0.636275 0.283445 -0.452796 0.617619 
0.406743 -0.456681 0.590666 0.523591 -0.456774 0.55729 0.63066 -0.450747 0.519534 
0.725092 -0.436782 0.479483 0.804613 -0.413726 0.439129 0.867625 -0.381202 0.400259 
0.913244 -0.339662 0.364343 0.941309 -0.290389 0.332463 0.952346 -0.235433 0.305258 
0.947494 -0.177498 0.282907 0.928398 -0.119777 0.265148 0.897085 -0.0657583 0.251315 
0.855812 -0.0189967 0.240421 0.80692 0.0171166 0.231244 0.752685 0.0395818 0.222449 
0.695182 0.0459974 0.212698 0.636179 0.0347325 0.200773 0.577047 0.00505325 0.185689 
0.518719 -0.0428048 0.16678 0.46167 -0.107624 0.143777 0.405944 -0.187254 0.116846 
0.351214 -0.278716 0.0866008 0.296863 -0.378363 0.0540812 0.242098 -0.482078 0.0207006 
0.186072 -0.585506 -0.0118349 0.128012 -0.684298 -0.0416302 0.0673397 -0.774355 -0.0667212 
0.00378701 -0.852058 -0.0852038 -0.0625221 -0.91447 -0.0953625 -0.131011 -0.959486 -0.0957911 
-0.200627 -0.985947 -0.0854965 -0.269854 -0.993679 -0.0639802 -0.336761 -0.983483 -0.0312895 
-0.399087 -0.957061 0.0119629 -0.454353 -0.916885 0.0646143 -0.5 -0.866025 0.125 
-0.5 -0.866025 0.125 -0.537366 -0.80843 0.190788 -0.56047 -0.747038 0.260775 
-0.567295 -0.685369 0.332531 -0.556355 -0.626672 0.403525 -0.5268 -0.573725 0.471246 
-0.478503 -0.528671 0.53334 -0.412102 -0.492901 0.587724 -0.328997 -0.466984 0.632693 
-0.231309 -0.450666 0.667 -0.121794 -0.442911 0.689911 -0.00372605 -0.442011 0.701226 
0.119259 -0.445727 0.701273 0.243331 -0.451477 0.690866 0.364643 -0.456543 0.671243 
0.479521 -0.458286 0.643971 0.584628 -0.454359 0.610844 0.677115 -0.442894 0.573758 
0.754742 -0.422661 0.5346 0.815964 -0.39318 0.495128 0.859969 -0.354784 0.456869 
0.886682 -0.308621 0.421042 0.896726 -0.256601 0.38849 0.891336 -0.201294 0.35966 
0.872254 -0.145768 0.334593 0.841588 -0.093405 0.312956 0.80166 -0.047678 0.294095 
0.754852 -0.0119264 0.277111 0.703451 0.0108692 0.260956 0.649513 0.0182928 0.244534 
0.59475 0.00866562 0.226811 0.54045 -0.0188242 0.206916 0.487425 -0.0640449 0.184229 
0.436009 -0.125902 0.158459 0.386084 -0.20238 0.129684 0.337145 -0.290641 0.0983807 
0.288397 -0.387173 0.0654104 0.23887 -0.487984 0.0319848 0.187553 -0.588826 -0.00039849 
0.133529 -0.685432 -0.0300423 0.0761041 -0.773757 -0.0551541 0.0149246 -0.850209 -0.0739612 
-0.0499343 -0.911844 -0.0848281 -0.117908 -0.956524 -0.0863708 -0.187921 -0.98303 -0.0775581 
-0.258396 -0.991112 -0.0577943 -0.327318 -0.981479 -0.0269774 -0.392312 -0.955735 0.014471 
-0.450772 -0.916256 0.0656077 -0.5 -0.866025 0.125 -0.5 -0.866025 0.125 
-0.541066 -0.809109 0.190269 -0.568086 -0.748121 0.260671 -0.57893 -0.686527 0.333965 
-0.572004 -0.627547 0.407747 -0.546375 -0.573958 0.479572 -0.501854 -0.527934 0.54707 
-0.439034 -0.490922 0.608068 -0.359296 -0.463575 0.66069 -0.264758 -0.445738 0.703451 
-0.15819 -0.436486 0.735315 -0.0428891 -0.434228 0.755741 0.0774764 -0.436837 0.764686 
0.199044 -0.441833 0.762594 0.317944 -0.446582 0.750344 0.430483 -0.448504 0.729182 
0.533321 -0.44528 0.700634 0.623624 -0.435042 0.666404 0.699184 -0.416527 0.62826 
0.758503 -0.389189 0.587933 0.800835 -0.35327 0.547012 0.826182 -0.309805 0.50686 
0.835251 -0.260574 0.468542 0.829367 -0.20801 0.432787 0.810354 -0.155046 0.399965 
0.780394 -0.104934 0.370096 0.741868 -0.0610372 0.342885 0.697194 -0.0266062 0.317778 
0.648669 -0.0045613 0.294034 0.59833 0.00270935 0.270816 0.547839 -0.00647806 0.247284 
0.498404 -0.0329732 0.222687 0.450729 -0.0767123 0.19645 0.405013 -0.136695 0.168252 
0.360984 -0.211018 0.138074 0.317972 -0.296969 0.106233 0.275009 -0.391166 0.0733913 
0.230953 -0.489744 0.0405339 0.184634 -0.588569 0.00892298 0.134988 -0.683468 -0.0199692 
0.0812025 -0.770471 -0.0445469 0.02283 -0.846027 -0.0631907 -0.0401143 -0.907205 -0.0743636 
-0.107092 -0.95185 -0.0767166 -0.177019 -0.978698 -0.0691872 -0.248279 -0.987426 -0.0510838 
-0.318784 -0.978654 -0.0221504 -0.386069 -0.953883 0.0173929 -0.447415 -0.915381 0.0668372 
-0.5 -0.866025 0.125 -0.5 -0.866025 0.125 -0.544616 -0.809979 0.189472 
-0.575497 -0.749513 0.259981 -0.590393 -0.688008 0.334486 -0.587605 -0.628631 0.410729 
-0.566107 -0.574136 0.486339 -0.525632 -0.526705 0.558944 -0.466717 -0.487829 0.626282 
-0.390705 -0.458234 0.686312 -0.299695 -0.437867 0.737305 -0.196454 -0.425928 0.777922 
-0.0842871 -0.420963 0.807272 0.0331201 -0.420987 0.824935 0.151885 -0.423663 0.830971 
0.268119 -0.426483 0.825893 0.378117 -0.426977 0.810618 0.478536 -0.422909 0.786399 
0.566552 -0.412459 0.754739 0.639983 -0.39438 0.717294 0.697369 -0.368107 0.675768 
0.73802 -0.333825 0.63182 0.762003 -0.292481 0.586967 0.770099 -0.245745 0.542512 
0.763711 -0.195916 0.49948 0.744738 -0.145783 0.458587 0.715432 -0.098455 0.420226 
0.678227 -0.057155 0.384478 0.635579 -0.0250106 0.351145 0.5898 -0.00484091 0.31981 
0.542915 0.00103919 0.2899 0.496547 -0.0090132 0.260773 0.451834 -0.0358408 0.231797 
0.409385 -0.0794065 0.202438 0.369278 -0.138767 0.172331 0.331103 -0.212105 0.141343 
0.294031 -0.296812 0.109618 0.256932 -0.389622 0.0775927 0.218499 -0.486794 0.0460026 
0.177401 -0.58431 0.0158506 0.132428 -0.678106 -0.0116392 0.0826407 -0.764295 -0.0350895 
0.0274879 -0.83939 -0.0530526 -0.033089 -0.90049 -0.0641045 -0.0985945 -0.945442 -0.0669414 
-0.167954 -0.97295 -0.0604747 -0.239531 -0.982632 -0.0439173 -0.311187 -0.97502 -0.0168547 
-0.38038 -0.951513 0.0207032 -0.444295 -0.914262 0.068294 -0.5 -0.866025 0.125 
-0.5 -0.866025 0.125 -0.548 -0.811039 0.188398 -0.582657 -0.751214 0.258686 
-0.601603 -0.689825 0.334038 -0.603025 -0.629956 0.412353 -0.585793 -0.574313 0.491343 
-0.549552 -0.525066 0.568639 -0.494766 -0.48373 0.641899 -0.422726 -0.451098 0.708916 
-0.335494 -0.427216 0.767723 -0.235819 -0.411417 0.816676 -0.127003 -0.4024 0.854532 
-0.0127375 -0.398354 0.880494 0.103081 -0.397116 0.894236 0.216548 -0.396353 0.895903 
0.323944 -0.393752 0.886084 0.42192 -0.387211 0.865762 0.507654 -0.375015 0.836244 
0.578977 -0.355984 0.799074 0.63446 -0.329579 0.755943 0.673451 -0.29597 0.708585 
0.696073 -0.256049 0.658687 0.703169 -0.211393 0.607797 0.69621 -0.164179 0.557253 
0.677166 -0.117053 0.508129 0.648352 -0.0729623 0.461199 0.612263 -0.0349696 0.416929 
0.571396 -0.00604539 0.375488 0.528084 0.0111326 0.336783 0.484355 0.0143674 0.300507 
0.441806 0.00210438 0.266211 0.401524 -0.026445 0.233377 0.364038 -0.0712258 0.201497 
0.329324 -0.131313 0.170152 0.296844 -0.204939 0.139076 0.265629 -0.289574 0.108218 
0.234391 -0.382056 0.0777741 0.201665 -0.478752 0.0482056 0.165959 -0.575766 0.0202361 
[...]
POINT_DATA 2500
SCALARS Scalars float
LOOKUP_TABLE default
1.00778 0.9822 0.95424 0.924815 0.89403 0.861546 0.827153 0.791398 0.756127 
0.72477 0.702106 0.693269 0.702012 0.729022 0.771446 0.823923 0.88021 0.93448 
0.982014 1.01946 1.0448 1.05728 1.05708 1.0451 1.02258 0.990817 0.950862 
0.903414 0.848847 0.787454 0.719893 0.647858 0.575015 0.508231 0.458591 0.439752 
0.460414 0.516826 0.596353 0.6858 0.774985 0.856758 0.926352 0.980906 1.01918 
1.04136 1.04881 1.04381 1.02917 1.00778 1.00778 0.984505 0.959291 0.933078 
0.906011 0.877795 0.848235 0.817819 0.788195 0.762362 0.744395 0.73854 0.747811 
0.772682 0.810707 0.857252 0.906775 0.953946 0.994349 1.0248 1.0434 1.04947 
1.04332 1.026 0.99892 0.963592 0.921279 0.872865 0.818855 0.759611 0.695802 
0.629094 0.56307 0.504328 0.463073 0.451017 0.474763 0.530444 0.607023 0.692819 
0.778491 0.857274 0.92455 0.9775 1.01487 1.03681 1.04463 1.04054 1.0273 
1.00778 1.00778 0.986877 0.964435 0.941432 0.918077 0.894136 0.869439 0.844411 
0.820472 0.800165 0.786858 0.783959 0.793789 0.816589 0.850226 0.890709 0.933178 
0.972851 1.00569 1.02873 1.04025 1.03967 1.02741 1.00463 0.97292 0.933941 
0.889144 0.839576 0.785866 0.728447 0.668012 0.606209 0.54655 0.495372 0.462069 
0.456655 0.483953 0.539851 0.614475 0.697412 0.780136 0.856316 0.921552 0.973116 
1.00978 1.03166 1.04001 1.037 1.02532 1.00778 1.00778 0.989303 0.969637 
0.949806 0.930097 0.910358 0.890455 0.870746 0.852416 0.837552 0.828844 0.828919 
0.839451 0.860428 0.889923 0.924481 0.959876 0.991886 1.01689 1.03225 1.03641 
1.02895 1.01039 0.982016 0.945531 0.902738 0.855233 0.804198 0.750373 0.694261 
0.63659 0.579012 0.525001 0.480692 0.454793 0.45587 0.48719 0.544252 0.617974 
0.698963 0.779445 0.853551 0.917141 0.967626 1.00383 1.02587 1.03497 1.03322 
1.02324 1.00778 1.00778 0.991772 0.974863 0.958129 0.941945 0.926252 0.910965 
0.896383 0.883463 0.873854 0.869616 0.872661 0.884067 0.90354 0.929268 0.958215 
0.986709 1.01107 1.02814 1.0356 1.03216 1.01758 0.99251 0.958344 0.916888 
0.870056 0.819551 0.766662 0.712213 0.65677 0.601098 0.546885 0.497628 0.45938 
0.440344 0.447864 0.483764 0.542984 0.616914 0.696957 0.776018 0.848691 0.911131 
0.960923 0.996981 1.01944 1.0295 1.0292 1.02106 1.00778 1.00778 0.99427 
0.98008 0.966333 0.953496 0.941613 0.930658 0.920886 0.913046 0.908385 0.90839 
0.914331 0.926739 0.945025 0.967406 0.991152 1.01305 1.02992 1.03905 1.0385 
1.02728 1.00535 0.973531 0.933337 0.886673 0.835539 0.781717 0.72656 0.670944 
0.615468 0.56093 0.509086 0.463554 0.430489 0.417846 0.431935 0.473118 0.535562 
0.610852 0.691014 0.769551 0.841514 0.903375 0.952924 0.98919 1.01236 1.02361 
1.02494 1.01879 1.00778 1.00778 0.996786 0.985256 0.974354 0.964634 0.956246 
0.949237 0.943834 0.940611 0.940462 0.94437 0.953038 0.966498 0.983862 1.00331 
1.02231 1.03802 1.04769 1.04903 1.04049 1.02139 0.991942 0.95318 0.906749 
0.854663 0.798992 0.741565 0.683755 0.626434 0.570185 0.515815 0.465172 0.422135 
0.393254 0.386599 0.407582 0.454923 0.521725 0.599549 0.680909 0.759853 0.831877 
0.893781 0.943578 0.980442 1.00462 1.01732 1.02046 1.01644 1.00778 1.00778 
0.999308 0.990363 0.982133 0.975253 0.969976 0.96643 0.964839 0.965643 0.969442 
0.976792 0.987906 1.00238 1.01902 1.03592 1.05068 1.06071 1.06361 1.05749 
1.04117 1.0143 0.977367 0.931634 0.878914 0.821334 0.761029 0.699839 0.639096 
0.579591 0.521803 0.46648 0.41556 0.373363 0.347316 0.346195 0.374603 0.429148 
0.501486 0.582992 0.666599 0.746869 0.819731 0.882316 0.932876 0.970742 0.996253 
1.01063 1.01577 1.01401 1.00778 1.00778 1.00182 0.995372 0.989618 0.985258 
0.982646 0.981996 0.983558 0.987682 0.994745 1.00496 1.01814 1.03348 1.04953 
1.06427 1.07532 1.0803 1.07708 1.06411 1.04052 1.00632 0.962276 0.909893 
0.851174 0.788369 0.72366 0.658852 0.595159 0.533168 0.473112 0.415515 0.362313 
0.318432 0.292979 0.296612 0.333166 0.396136 0.475182 0.561426 0.648237 0.730685 
0.805126 0.869013 0.920844 0.960118 0.987275 1.00357 1.0109 1.01152 1.00778 
1.00778 1.00432 1.00026 0.996763 0.994573 0.994129 0.995739 0.999705 1.00634 
1.01588 1.02828 1.04303 1.05904 1.07459 1.08754 1.09551 1.09622 1.08777 
1.06887 1.03896 0.998337 0.948074 0.889918 0.826069 0.758897 0.690607 0.622912 
0.556795 0.492483 0.42973 0.368531 0.310439 0.260832 0.231665 0.238266 0.283902 
0.356687 0.443518 0.535378 0.626183 0.711539 0.788214 0.853976 0.907557 0.948625 
0.977731 0.996186 1.00587 1.00898 1.00778 1.00778 1.0068 1.005 1.00353 
1.00314 1.00433 1.00751 1.01306 1.02132 1.03245 1.04627 1.06204 1.07843 
1.09355 1.1051 1.11069 1.10811 1.0956 1.07207 1.03726 0.991703 0.936767 
0.874439 0.807113 0.737267 0.667093 0.598137 0.531037 0.465486 0.400514 0.335176 
0.269845 0.208946 0.167306 0.172047 0.228052 0.312209 0.407636 0.505675 0.60101 
0.689815 0.769254 0.837376 0.893129 0.936342 0.967677 0.988499 1.00069 1.00639 
1.00778 1.00778 1.00924 1.00959 1.0099 1.01091 1.01319 1.01721 1.02349 
1.03242 1.0442 1.05859 1.07476 1.09122 1.10593 1.11651 1.12052 1.11578 
1.10064 1.07418 1.03634 0.987922 0.930533 0.866397 0.798083 0.72815 0.658724 
0.5911 0.525471 0.460897 0.395604 0.327588 0.255511 0.180406 0.11251 0.0994654 
0.167985 0.265021 0.369216 0.473469 0.5735 0.666045 0.748599 0.819449 0.877716 
0.923372 0.95718 0.980559 0.995391 1.00378 1.00778 1.00778 1.01163 1.014 
1.01585 1.01788 1.02067 1.02481 1.03092 1.03955 1.05099 1.06507 1.08095 
1.09711 1.11144 1.12149 1.12478 1.11914 1.10301 1.07558 1.03698 0.98821 
0.93111 0.868101 0.801885 0.735029 0.669501 0.606235 0.544891 0.483901 0.420859 
0.353123 0.278445 0.195519 0.104731 0.0264417 0.109576 0.219044 0.330615 0.440255 
0.54464 0.640887 0.726694 0.800488 0.861511 0.90984 0.946319 0.972414 0.990005 
1.00114 1.00778 1.00778 1.01397 1.01822 1.02136 1.02402 1.02679 1.03033 
1.03539 1.04272 1.0528 1.06565 1.08054 1.096 1.10995 1.11989 1.12334 
1.11813 1.10272 1.07642 1.03947 0.993064 0.939185 0.88039 0.819416 0.758713 
0.699929 0.6435 0.588486 0.532768 0.47356 0.408079 0.334166 0.250781 0.158651 
0.065458 0.074819 0.18117 0.295069 0.407883 0.515599 0.615114 0.704053 0.780834 
0.844736 0.895887 0.935182 0.964116 0.984559 0.998496 1.00778 1.00778 1.01624 
1.02224 1.02644 1.02938 1.0316 1.03384 1.037 1.04205 1.04978 1.06045 
1.07361 1.08794 1.10144 1.11166 1.1161 1.11258 1.09957 1.07643 1.04347 
1.00198 0.954027 0.902179 0.849057 0.796819 0.746633 0.698336 0.650404 0.600298 
0.545073 0.482065 0.409506 0.327075 0.236876 0.147763 0.102058 0.162217 0.266763 
0.378526 0.487691 0.589579 0.681241 0.760863 0.827636 0.88167 0.923866 0.955723 
0.979083 0.995858 1.00778 1.00778 1.01845 1.02606 1.0311 1.03397 1.03517 
1.03547 1.03593 1.0378 1.04218 1.04975 1.0604 1.07311 1.08605 1.09683 
1.10297 1.10225 1.09311 1.07489 1.0479 1.01344 0.973538 0.930624 0.887053 
0.844541 0.80369 0.763746 0.722713 0.677797 0.626052 0.565027 0.493329 0.411138 
0.321063 0.230854 0.164103 0.171162 0.250306 0.354538 0.462303 0.565171 0.65885 
0.740968 0.810468 0.867352 0.912473 0.947296 0.973611 0.99324 1.00778 1.00778 
1.02059 1.02968 1.03535 1.03786 1.03761 1.03541 1.03246 1.03028 1.0304 
1.03396 1.04131 1.05186 1.06401 1.07551 1.08387 1.08681 1.08267 1.07071 
1.05115 1.02518 0.994661 0.961786 0.928515 0.896063 0.864478 0.832518 0.797861 
0.757605 0.708891 0.649491 0.57831 0.495842 0.404838 0.312061 0.23371 0.204539 
0.249022 0.338116 0.440781 0.542762 0.637463 0.721541 0.793493 0.853102 0.901108 
0.938896 0.968174 0.990654 1.00778 1.00778 1.02264 1.03309 1.03922 1.0411 
1.03905 1.03387 1.0269 1.01994 1.01495 1.01361 1.01689 1.02466 1.0357 
1.0479 1.05876 1.06589 1.06748 1.0626 1.0513 1.03456 1.01399 0.99145 
0.968472 0.945791 0.922991 0.89847 0.869713 0.833798 0.787979 0.730222 0.659656 
0.576961 0.484908 0.389548 0.303405 0.251487 0.262887 0.330766 0.424259 0.523131 
0.617617 0.702952 0.77696 0.839085 0.889875 0.930585 0.962807 0.988113 1.00778 
1.00778 1.02462 1.0363 1.04272 1.04376 1.03964 1.03112 1.01964 1.00727 
0.996428 0.9894 0.987809 0.992149 1.00162 1.0143 1.02768 1.03919 1.0468 
1.0493 1.04649 1.03907 1.02835 1.01582 1.00263 0.9891 0.974466 0.956882 
0.933728 0.902099 0.859353 0.803603 0.734124 0.651703 0.559074 0.461772 0.370198 
0.303587 0.288519 0.332761 0.413465 0.506885 0.599765 0.685528 0.7611 0.825457 
0.878876 0.922427 0.957543 0.985631 1.00778 1.00778 1.0265 1.0393 1.04588 
1.04594 1.03955 1.02742 1.01108 0.992841 0.97554 0.962099 0.954876 0.955071 
0.962394 0.975169 0.990828 1.00659 1.0201 1.02981 1.0352 1.03666 1.0352 
1.03196 1.02778 1.02265 1.01556 1.00452 0.986838 0.959642 0.920361 0.8672 
0.799516 0.718138 0.625729 0.527429 0.43228 0.355935 0.321258 0.342989 0.408549 
0.494378 0.584239 0.669535 0.746114 0.812362 0.868207 0.914481 0.952415 0.983221 
1.00778 1.00778 1.02828 1.04212 1.04875 1.0477 1.03893 1.02306 1.00167 
0.977244 0.953037 0.932578 0.919008 0.914315 0.918817 0.931116 0.948591 0.968178 
0.987128 1.00351 1.01645 1.02601 1.0329 1.03802 1.04193 1.04442 1.04431 
1.03949 1.02726 1.00474 0.969401 0.919493 0.854398 0.774938 0.68368 0.585442 
0.48832 0.405616 0.356918 0.359324 0.409031 0.485662 0.571216 0.655163 0.732164 
0.799925 0.857959 0.906806 0.947456 0.980897 1.00778 1.00778 1.02997 1.04474 
1.05134 1.04914 1.03795 1.01831 0.991815 0.961084 0.929697 0.901762 0.881205 
0.870878 0.871799 0.882918 0.901563 0.924339 0.948047 0.970324 0.98991 1.00657 
1.02078 1.03323 1.0443 1.05363 1.05994 1.06106 1.05425 1.03663 1.00569 
0.959656 0.897908 0.821218 0.732044 0.634923 0.537254 0.450706 0.392293 0.379234 
0.413879 0.480465 0.560706 0.64251 0.719365 0.788251 0.848213 0.899457 0.942698 
0.978669 1.00778 1.00778 1.03156 1.04717 1.0537 1.05033 1.03676 1.01345 
0.981935 0.944941 0.906292 0.87059 0.842516 0.825832 0.822363 0.831501 0.850547 
0.875743 0.90339 0.930654 0.955895 0.978603 0.999051 1.01778 1.03507 1.05047 
1.06264 1.06936 1.06787 1.05528 1.02904 0.987361 0.92958 0.856399 0.770151 
0.675128 0.578184 0.489805 0.425025 0.400284 0.421707 0.478234 0.552554 0.631588 
0.70779 0.777421 0.839039 0.892485 0.93817 0.976551 1.00778 1.00778 1.03305 
1.04943 1.05584 1.05134 1.0355 1.00868 0.972387 0.929344 0.883541 0.839967 
0.803986 0.780282 0.771598 0.777891 0.796504 0.823296 0.854025 0.885353 0.915257 
0.942972 0.968608 0.992611 1.01519 1.03587 1.05326 1.06514 1.06871 1.06106 
1.03962 1.00257 0.949181 0.880076 0.797463 0.705409 0.610329 0.52181 0.453369 
0.42037 0.430999 0.47821 0.546459 0.622322 0.697462 0.767494 0.830497 0.885938 
0.933902 0.974555 1.00778 1.00778 1.03442 1.05151 1.0578 1.05224 1.03428 
1.00422 0.963475 0.914741 0.86207 0.810712 0.766596 0.735302 0.72059 0.723149 
0.740468 0.768037 0.801029 0.835559 0.86921 0.900966 0.930802 0.959098 0.986034 
1.01113 1.03299 1.04939 1.05754 1.05452 1.03775 1.00535 0.956564 0.891919 
0.8135 0.725173 0.632984 0.545818 0.475999 0.437788 0.440295 0.479528 0.542018 
0.614568 0.688366 0.758507 0.822638 0.879857 0.929921 0.97269 1.00778 1.00778 
1.03569 1.05342 1.0596 1.05307 1.0332 1.00021 0.955426 0.901472 0.842373 
0.7835 0.731199 0.691862 0.670344 0.668269 0.68344 0.711015 0.745533 0.782509 
0.819097 0.854024 0.887134 0.918754 0.949064 0.977601 1.00301 1.02311 1.03513 
1.03618 1.02367 0.995739 0.951554 0.891585 0.817794 0.733861 0.645515 0.561072 
0.491901 0.451213 0.448319 0.481323 0.538773 0.608135 0.680453 0.750479 0.815502 
0.874281 0.926251 0.970969 1.00778 1.00778 1.03685 1.05517 1.06125 1.05387 
1.03231 0.996745 0.94839 0.889761 0.824782 0.758816 0.698446 0.650745 0.621696 
0.614083 0.626263 0.653136 0.688552 0.727344 0.766176 0.803489 0.838983 0.872941 
0.905561 0.936439 0.964303 0.987047 1.002 1.00633 0.997487 0.973625 0.933892 
0.878691 0.809876 0.73095 0.647365 0.566961 0.500318 0.459666 0.454041 0.48281 
0.536267 0.602807 0.673654 0.743413 0.809121 0.869244 0.922915 0.969399 1.00778 
1.00778 1.0379 1.05676 1.06278 1.05466 1.03167 0.993882 0.942434 0.879706 
0.809457 0.736924 0.668747 0.612491 0.575236 0.561165 0.56951 0.595043 0.630851 
0.670957 0.71145 0.750428 0.787428 0.822691 0.856457 0.888424 0.917462 0.94162 
0.958371 0.96501 0.959083 0.938777 0.903243 0.852835 0.789302 0.715987 0.638086 
0.563035 0.500737 0.462488 0.456715 0.483357 0.534088 0.598373 0.66789 0.737303 
0.803518 0.864774 0.919934 0.96799 1.00778 1.00778 1.03883 1.05818 1.06418 
1.05547 1.03128 0.991624 0.937551 0.871287 0.796388 0.717862 0.642238 0.577347 
0.531259 0.509771 0.513415 0.537039 0.572867 0.613933 0.655613 0.695596 0.733225 
0.768701 0.802341 0.834006 0.862786 0.886966 0.904245 0.912109 0.908239 0.890905 
0.859275 0.813663 0.755723 0.688641 0.617387 0.549039 0.492899 0.459339 0.455895 
0.482523 0.531913 0.59465 0.663085 0.732139 0.798713 0.860896 0.917326 0.96675 
1.00778 1.00778 1.03964 1.05944 1.06546 1.05629 1.03113 0.989941 0.933672 
0.864391 0.785418 0.70147 0.618806 0.545285 0.489768 0.459834 0.457858 0.479094 
0.514761 0.556624 0.599163 0.639572 0.67697 0.711528 0.743685 0.773543 0.800503 
0.823188 0.839617 0.847533 0.844809 0.829827 0.801791 0.760983 0.708966 0.64878 
0.585191 0.52496 0.476832 0.450199 0.451442 0.480087 0.529536 0.591501 0.659175 
0.727909 0.794722 0.857632 0.915107 0.965686 1.00778 1.00778 1.04034 1.06055 
1.06662 1.05712 1.0312 0.988772 0.93068 0.858829 0.776289 0.687434 0.59814 
0.516052 0.450534 0.411023 0.402431 0.420952 0.456586 0.499394 0.542703 0.583112 
0.619496 0.652018 0.681292 0.707747 0.731211 0.750765 0.764848 0.771551 0.76899 
0.75569 0.730909 0.694901 0.649143 0.596544 0.541697 0.491087 0.452893 0.435402 
0.443538 0.47606 0.526883 0.588851 0.656121 0.724607 0.791557 0.855 0.913291 
0.964802 1.00778 1.00778 1.04091 1.06148 1.06765 1.05794 1.03145 0.988036 
0.928433 0.854377 0.768685 0.675364 0.579824 0.489276 0.413222 0.362873 0.346566 
0.362344 0.398629 0.443051 0.487436 0.5277 0.562477 0.591948 0.616962 0.638366 
0.656537 0.671153 0.681208 0.685244 0.681694 0.669262 0.647274 0.615968 0.576744 
0.532413 0.487439 0.448065 0.421836 0.415667 0.432688 0.470681 0.524019 0.586696 
0.65391 0.722233 0.78923 0.853015 0.911888 0.964105 1.00778 1.00778 1.04136 
1.06226 1.06855 1.05873 1.03184 0.987645 0.926778 0.850803 0.762284 0.664861 
0.563434 0.464597 0.377553 0.314958 0.289697 0.303301 0.341926 0.389472 0.435837 
0.476257 0.509184 0.534856 0.554389 0.569111 0.580063 0.587674 0.591669 0.591189 
0.585093 0.572335 0.552341 0.525352 0.492734 0.457257 0.423336 0.396986 0.384902 
0.392155 0.419723 0.464408 0.521137 0.5851 0.652561 0.720798 0.787754 0.851689 
0.910907 0.963598 1.00778 1.00778 1.04169 1.06285 1.06931 1.05947 1.03231 
0.987508 0.925572 0.847896 0.756804 0.655588 0.548631 0.441786 0.343486 0.267117 
0.23143 0.244676 0.289075 0.342393 0.392354 0.4338 0.465181 0.486835 0.500116 
0.506805 0.508631 0.506896 0.502246 0.494654 0.48361 0.468466 0.448852 0.4251 
0.398641 0.372358 0.350756 0.339537 0.343978 0.366531 0.40579 0.457887 0.518546 
0.584189 0.652122 0.720324 0.787142 0.851031 0.910354 0.963283 1.00778 1.00778 
1.04189 1.06328 1.06991 1.06013 1.03281 0.987544 0.924691 0.845486 0.752032 
0.647313 0.535229 0.42085 0.311404 0.219729 0.171695 0.189166 0.245388 0.308006 
0.363559 0.407367 0.438196 0.456521 0.463816 0.462116 0.453648 0.440483 0.424254 
0.405989 0.386133 0.36478 0.342083 0.318777 0.296736 0.279403 0.271649 0.278335 
0.301865 0.341023 0.392312 0.451907 0.51664 0.584142 0.652668 0.72084 0.787407 
0.851048 0.910233 0.963161 1.00778 1.00778 1.04196 1.06352 1.07034 1.06068 
1.03331 0.987682 0.924041 0.843458 0.747847 0.639937 0.523232 0.402083 0.282263 
0.174212 0.110927 0.143825 0.219538 0.293926 0.356391 0.403892 0.435769 0.452616 
0.455871 0.447541 0.429947 0.405464 0.376288 0.344253 0.31077 0.276959 0.244036 
0.214035 0.190803 0.180465 0.189082 0.217856 0.262716 0.318422 0.38089 0.447333 
0.515865 0.585176 0.654294 0.722384 0.788562 0.851745 0.910545 0.963234 1.00778 
1.00778 1.04191 1.06357 1.07058 1.06109 1.03375 0.98787 0.923562 0.841756 
0.744218 0.633496 0.512827 0.386053 0.257663 0.134125 0.0510058 0.123651 0.220026 
0.304872 0.374037 0.426099 0.460805 0.478778 0.481338 0.470333 0.447928 0.41639 
0.37788 0.33427 0.287053 0.237376 0.186335 0.135923 0.0926324 0.07814 0.110375 
0.16697 0.232455 0.301883 0.373151 0.445026 0.516678 0.587522 0.65711 0.725001 
0.79062 0.85312 0.911287 0.9635 1.00778 1.00778 1.04172 1.06342 1.07062 
1.06134 1.03409 0.988067 0.923224 0.84038 0.741199 0.628139 0.50435 0.373523 
0.239726 0.1074 0.0255258 0.140674 0.246877 0.338412 0.413252 0.470298 0.509298 
0.530775 0.535919 0.526432 0.504333 0.471758 0.43075 0.383096 0.330209 0.273105 
0.212466 0.148862 0.0835207 0.0295005 0.0708801 0.142802 0.218084 0.294353 0.370505 
0.445747 0.519507 0.591413 0.661226 0.728733 0.793591 0.855173 0.912455 0.963957 
1.00778 1.00778 1.0414 1.06307 1.07044 1.0614 1.03432 0.988248 0.923025 
0.839372 0.738905 0.624099 0.49822 0.365308 0.230582 0.105254 0.0792213 0.183409 
0.29124 0.386849 0.466565 0.528768 0.572942 0.599434 0.609283 0.604048 0.585605 
0.555955 0.517029 0.470561 0.418026 0.360699 0.299874 0.237432 0.177373 0.130526 
0.121206 0.159937 0.224191 0.297663 0.373909 0.450082 0.52472 0.597062 0.666752 
0.733624 0.797481 0.857895 0.914041 0.964603 1.00778 1.00778 1.04095 1.06251 
1.07002 1.06124 1.03439 0.988396 0.922978 0.838802 0.737491 0.621641 0.494858 
0.362077 0.231474 0.127995 0.136939 0.235543 0.343379 0.442002 0.526084 0.593357 
0.642989 0.675122 0.690622 0.690873 0.677561 0.652477 0.61735 0.573747 0.523055 
0.466588 0.405839 0.342975 0.281817 0.229793 0.20025 0.207236 0.249167 0.311842 
0.383699 0.458382 0.532593 0.604651 0.673783 0.739706 0.802291 0.861276 0.916036 
0.965432 1.00778 1.00778 1.04036 1.06173 1.06935 1.06084 1.03429 0.988501 
0.923107 0.838747 0.73711 0.621013 0.494598 0.364172 0.242031 0.163904 0.191953 
0.288516 0.396407 0.497458 0.58534 0.657272 0.712137 0.74988 0.771186 0.777234 
0.769474 0.749429 0.718549 0.678146 0.629415 0.573569 0.512092 0.447158 0.382312 
0.323604 0.280915 0.266637 0.286988 0.335292 0.399609 0.47076 0.543304 0.614316 
0.682393 0.747003 0.808013 0.8653 0.918427 0.96644 1.00778 1.00778 1.03964 
1.06073 1.0684 1.06016 1.03399 0.988548 0.923429 0.839275 0.737892 0.622397 
0.497619 0.371498 0.260429 0.204088 0.242795 0.338202 0.445935 0.548677 0.639546 
0.715391 0.774869 0.817753 0.844549 0.856223 0.853964 0.838994 0.812449 0.775348 
0.728651 0.673424 0.611093 0.543814 0.475012 0.410164 0.357708 0.328663 0.331683 
0.365664 0.420945 0.487121 0.556929 0.626146 0.69263 0.755523 0.814633 0.869943 
0.921197 0.967619 1.00778 1.00778 1.03879 1.05949 1.06716 1.05919 1.03345 
0.988516 0.923945 0.840419 0.739904 0.625868 0.50389 0.383535 0.284232 0.244314 
0.288606 0.382404 0.489231 0.592623 0.685392 0.764126 0.827315 0.874589 0.906291 
0.923178 0.92617 0.916179 0.894015 0.860387 0.816006 0.761775 0.699051 0.629986 
0.557979 0.488281 0.428648 0.389194 0.37918 0.400709 0.44683 0.507226 0.573457 
0.640173 0.704511 0.765254 0.822123 0.875179 0.924329 0.968964 1.00778 1.00778 
1.0378 1.05801 1.0656 1.05789 1.03264 0.988371 0.924629 0.842168 0.743132 
0.631364 0.513161 0.399435 0.311152 0.282602 0.328895 0.419962 0.524718 0.627463 
0.720836 0.801248 0.86707 0.917821 0.953706 0.975279 0.9832 0.978071 0.960369 
0.930494 0.888903 0.836327 0.774049 0.704224 0.630277 0.557384 0.492952 0.446477 
0.427154 0.43871 0.476417 0.530761 0.592799 0.656376 0.718015 0.776165 0.830445 
0.880974 0.927799 0.970465 1.00778 1.00778 1.03669 1.05628 1.06372 1.05624 
1.03152 0.988061 0.925424 0.844448 0.747467 0.638674 0.524974 0.418173 0.339361 
0.317985 0.363502 0.450424 0.551715 0.652374 0.744954 0.825748 0.893052 0.946308 
0.9856 1.0113 1.02381 1.02344 1.01033 0.984563 0.946356 0.896261 0.835481 
0.766175 0.69181 0.617551 0.550599 0.499967 0.474488 0.478553 0.509001 0.557384 
0.614808 0.674681 0.733085 0.788199 0.839547 0.887288 0.931585 0.972114 1.00778 